% Model:              Testfile_Rectangle.mph
% Version:            COMSOL 5.2.1.152
% Date:               Jun 22 2016, 14:21
% Table:              Full_EV_D - Full_EV_D (lambda, abs(lambda))
% Omega                                           lambda (rad/s)
10                                                1.4487868169617614E-14-4.442882938152714i
10                                                -0.8105694691385936
10                                                1.4487868169617614E-14+4.442882938152714i
10                                                -0.8105694691385936
10                                                5.494432830598269E-12-7.024814698997128i
10                                                -2.3741765292388246E-8-1.9672317551775954E-15i
10                                                5.494432830598269E-12+7.024814698997128i
10                                                -2.3741765292388246E-8+1.9672317551775954E-15i
10                                                -5.843186885383035E-12-7.024814763087908i
10                                                -2.374169540176025E-8+6.111877018521566E-15i
10                                                -5.843186885383035E-12+7.024814763087908i
10                                                -2.374169540176025E-8-6.111877018521566E-15i
10                                                -4.254270638167569E-14-8.885765876322044i
10                                                -1.0355352115542251E-12+4.478485719227899E-17i
10                                                -4.254270638167569E-14+8.885765876322044i
10                                                -1.0355352115542251E-12-4.478485719227899E-17i
10                                                1.650169479333173E-11-9.934588265793819i
10                                                -0.36194428648816446
10                                                1.650169479333173E-11+9.934588265793819i
10                                                -0.36194428648816446
20.6913808111479                                  3.7986863802958564E-14-4.442882938144445i
20.6913808111479                                  -0.8105694691385805
20.6913808111479                                  3.7986863802958564E-14+4.442882938144445i
20.6913808111479                                  -0.8105694691385805
20.6913808111479                                  1.7727648070176625E-12-7.024814664729258i
20.6913808111479                                  -4.913052026711742E-8+2.357600831876145E-15i
20.6913808111479                                  1.7727648070176625E-12+7.024814664729258i
20.6913808111479                                  -4.913052026711742E-8-2.357600831876145E-15i
20.6913808111479                                  -1.8144961167762107E-12-7.02481479733768i
20.6913808111479                                  -4.9121127506481946E-8+1.0750257335179453E-15i
20.6913808111479                                  -1.8144961167762107E-12+7.02481479733768i
20.6913808111479                                  -4.9121127506481946E-8-1.0750257335179453E-15i
20.6913808111479                                  2.960574613251596E-14-8.885765876303548i
20.6913808111479                                  -1.1517551356921575E-12-3.5600999913890156E-17i
20.6913808111479                                  2.960574613251596E-14+8.885765876303548i
20.6913808111479                                  -1.1517551356921575E-12+3.5600999913890156E-17i
20.6913808111479                                  -9.272528839668347E-13-9.93458826579537i
20.6913808111479                                  -0.3619442864352232+3.0180770880703887E-15i
20.6913808111479                                  -9.272528839668347E-13+9.93458826579537i
20.6913808111479                                  -0.3619442864352232-3.0180770880703887E-15i
42.81332398719393                                 6.107849337685923E-14-4.442882938143649i
42.81332398719393                                 -0.810569469138706
42.81332398719393                                 6.107849337685923E-14+4.442882938143649i
42.81332398719393                                 -0.810569469138706
42.81332398719393                                 -7.972292811039968E-13-7.02481459383854i
42.81332398719393                                 -1.0164209283632369E-7-1.274373093041479E-15i
42.81332398719393                                 -7.972292811039968E-13+7.02481459383854i
42.81332398719393                                 -1.0164209283632369E-7+1.274373093041479E-15i
42.81332398719393                                 8.370637123419811E-13-7.024814868225409i
42.81332398719393                                 -1.0165186628542451E-7+8.895821716694073E-16i
42.81332398719393                                 8.370637123419811E-13+7.024814868225409i
42.81332398719393                                 -1.0165186628542451E-7-8.895821716694073E-16i
42.81332398719393                                 2.8702476023711157E-13-8.885765876309687i
42.81332398719393                                 -1.1158157235271911E-12+1.2047184619352934E-15i
42.81332398719393                                 2.8702476023711157E-13+8.885765876309687i
42.81332398719393                                 -1.1158157235271911E-12-1.2047184619352934E-15i
42.81332398719393                                 -2.910541041412993E-12-9.934588265788012i
42.81332398719393                                 -0.3619442864009683+3.575926707576307E-15i
42.81332398719393                                 -2.910541041412993E-12+9.934588265788012i
42.81332398719393                                 -0.3619442864009683-3.575926707576307E-15i
88.58667904100822                                 5.251015675359201E-15-4.442882938165974i
88.58667904100822                                 -0.8105694691388186
88.58667904100822                                 5.251015675359201E-15+4.442882938165974i
88.58667904100822                                 -0.8105694691388186
88.58667904100822                                 -6.48432993572911E-12-7.02481444716572i
88.58667904100822                                 -2.1032375836676023E-7+5.7879673429677544E-15i
88.58667904100822                                 -6.48432993572911E-12+7.02481444716572i
88.58667904100822                                 -2.1032375836676023E-7-5.7879673429677544E-15i
88.58667904100822                                 6.450729201833597E-12-7.024815014910728i
88.58667904100822                                 -2.1031859435006088E-7+4.9229445392250446E-15i
88.58667904100822                                 6.450729201833597E-12+7.024815014910728i
88.58667904100822                                 -2.1031859435006088E-7-4.9229445392250446E-15i
88.58667904100822                                 -5.542959845513608E-14-8.885765876311167i
88.58667904100822                                 -1.175383220350905E-12-1.7856591177679876E-17i
88.58667904100822                                 -5.542959845513608E-14+8.885765876311167i
88.58667904100822                                 -1.175383220350905E-12+1.7856591177679876E-17i
88.58667904100822                                 7.1840085512748535E-12-9.934588265793584i
88.58667904100822                                 -0.36194428631201453+3.841207151958784E-16i
88.58667904100822                                 7.1840085512748535E-12+9.934588265793584i
88.58667904100822                                 -0.36194428631201453-3.841207151958784E-16i
183.29807108324357                                6.155950974447619E-15-4.44288293816427i
183.29807108324357                                -0.8105694691385794
183.29807108324357                                6.155950974447619E-15+4.44288293816427i
183.29807108324357                                -0.8105694691385794
183.29807108324357                                2.5715518697132352E-12-7.024814143658238i
183.29807108324357                                -4.351816866515107E-7+1.0141221951821768E-15i
183.29807108324357                                2.5715518697132352E-12+7.024814143658238i
183.29807108324357                                -4.351816866515107E-7-1.0141221951821768E-15i
183.29807108324357                                -2.4594338708107547E-12-7.0248153184045234i
183.29807108324357                                -4.3518483791275024E-7-1.9152157977220375E-15i
183.29807108324357                                -2.4594338708107547E-12+7.0248153184045234i
183.29807108324357                                -4.3518483791275024E-7+1.9152157977220375E-15i
183.29807108324357                                2.8564632409025405E-13-8.885765876315046i
183.29807108324357                                -3.808325478805323E-12+2.6267523472923043E-18i
183.29807108324357                                2.8564632409025405E-13+8.885765876315046i
183.29807108324357                                -3.808325478805323E-12-2.6267523472923043E-18i
183.29807108324357                                -1.3036608355780725E-12-9.934588265788081i
183.29807108324357                                -0.3619442860996268+1.264404762792449E-16i
183.29807108324357                                -1.3036608355780725E-12+9.934588265788081i
183.29807108324357                                -0.3619442860996268-1.264404762792449E-16i
379.26901907322497                                1.8416308107157434E-13-4.442882938159043i
379.26901907322497                                -0.8105694691384409
379.26901907322497                                1.8416308107157434E-13+4.442882938159043i
379.26901907322497                                -0.8105694691384409
379.26901907322497                                3.676285736094888E-12-7.024813515686788i
379.26901907322497                                -9.004532512665943E-7+2.7509612699480107E-15i
379.26901907322497                                3.676285736094888E-12+7.024813515686788i
379.26901907322497                                -9.004532512665943E-7-2.7509612699480107E-15i
379.26901907322497                                -3.5691063578766814E-12-7.024815946396118i
379.26901907322497                                -9.004559394159991E-7+2.1811935333142015E-16i
379.26901907322497                                -3.5691063578766814E-12+7.024815946396118i
379.26901907322497                                -9.004559394159991E-7-2.1811935333142015E-16i
379.26901907322497                                5.832720148784088E-14-8.885765876308367i
379.26901907322497                                -3.258615579797754E-12+1.2260051968883142E-17i
379.26901907322497                                5.832720148784088E-14+8.885765876308367i
379.26901907322497                                -3.258615579797754E-12-1.2260051968883142E-17i
379.26901907322497                                -1.0604377766934017E-11-9.934588265801144i
379.26901907322497                                -0.36194428566484355-4.1747056577202657E-16i
379.26901907322497                                -1.0604377766934017E-11+9.934588265801144i
379.26901907322497                                -0.36194428566484355+4.1747056577202657E-16i
784.7599703514607                                 1.1624106928135768E-13-4.442882938152585i
784.7599703514607                                 -0.8105694691373815
784.7599703514607                                 1.1624106928135768E-13+4.442882938152585i
784.7599703514607                                 -0.8105694691373815
784.7599703514607                                 2.4144487037407318E-12-7.024812216296144i
784.7599703514607                                 -1.8631660989970243E-6-3.570991615826483E-15i
784.7599703514607                                 2.4144487037407318E-12+7.024812216296144i
784.7599703514607                                 -1.8631660989970243E-6+3.570991615826483E-15i
784.7599703514607                                 -2.5526531264797157E-12-7.024817245771977i
784.7599703514607                                 -1.8631631511687659E-6+4.148573423304615E-15i
784.7599703514607                                 -2.5526531264797157E-12+7.024817245771977i
784.7599703514607                                 -1.8631631511687659E-6-4.148573423304615E-15i
784.7599703514607                                 1.3566485519470008E-13-8.885765876285369i
784.7599703514607                                 -8.980086636949042E-12-1.6373695523816295E-17i
784.7599703514607                                 1.3566485519470008E-13+8.885765876285369i
784.7599703514607                                 -8.980086636949042E-12+1.6373695523816295E-17i
784.7599703514607                                 -7.300866505099407E-11-9.934588265823102i
784.7599703514607                                 -0.3619442847335716
784.7599703514607                                 -7.300866505099407E-11+9.934588265823102i
784.7599703514607                                 -0.3619442847335716
1623.776739188721                                 4.017883254635333E-14-4.442882938140501i
1623.776739188721                                 -0.8105694691329861
1623.776739188721                                 4.017883254635333E-14+4.442882938140501i
1623.776739188721                                 -0.8105694691329861
1623.776739188721                                 2.5298850553905424E-12-7.0248095276799205i
1623.776739188721                                 -3.855142536214876E-6+3.225462585655586E-17i
1623.776739188721                                 2.5298850553905424E-12+7.0248095276799205i
1623.776739188721                                 -3.855142536214876E-6-3.225462585655586E-17i
1623.776739188721                                 -2.606445105192554E-12-7.02481993435772i
1623.776739188721                                 -3.85514768404273E-6+4.958312785403813E-15i
1623.776739188721                                 -2.606445105192554E-12+7.02481993435772i
1623.776739188721                                 -3.85514768404273E-6-4.958312785403813E-15i
1623.776739188721                                 -1.2908565347818782E-14-8.88576587618869i
1623.776739188721                                 -3.304344266714229E-11-1.3714584271626526E-17i
1623.776739188721                                 -1.2908565347818782E-14+8.88576587618869i
1623.776739188721                                 -3.304344266714229E-11+1.3714584271626526E-17i
1623.776739188721                                 -1.3408677272185842E-10-9.934588265579686i
1623.776739188721                                 -0.3619442828241299+6.899503187594224E-17i
1623.776739188721                                 -1.3408677272185842E-10+9.934588265579686i
1623.776739188721                                 -0.3619442828241299-6.899503187594224E-17i
3359.818286283781                                 -1.1472890353254593E-14-4.442882938081808i
3359.818286283781                                 -0.810569469114513
3359.818286283781                                 -1.1472890353254593E-14+4.442882938081808i
3359.818286283781                                 -0.810569469114513
3359.818286283781                                 3.2739955897968946E-12-7.024803964515162i
3359.818286283781                                 -7.976821368914951E-6+4.002102719207613E-15i
3359.818286283781                                 3.2739955897968946E-12+7.024803964515162i
3359.818286283781                                 -7.976821368914951E-6-4.002102719207613E-15i
3359.818286283781                                 -3.2742866440465904E-12-7.024825497367582i
3359.818286283781                                 -7.976834066084578E-6-2.8164836442035713E-15i
3359.818286283781                                 -3.2742866440465904E-12+7.024825497367582i
3359.818286283781                                 -7.976834066084578E-6+2.8164836442035713E-15i
3359.818286283781                                 -2.6314054687690825E-13-8.885765875772103i
3359.818286283781                                 -1.523361417281053E-10-1.9198804063014105E-17i
3359.818286283781                                 -2.6314054687690825E-13+8.885765875772103i
3359.818286283781                                 -1.523361417281053E-10+1.9198804063014105E-17i
3359.818286283781                                 -5.138660689635036E-10-9.934588266468403i
3359.818286283781                                 -0.36194427883833796+1.785394747055462E-15i
3359.818286283781                                 -5.138660689635036E-10+9.934588266468403i
3359.818286283781                                 -0.36194427883833796-1.785394747055462E-15i
6951.927961775606                                 -2.5450233112844038E-14-4.442882937868034i
6951.927961775606                                 -0.810569469035139
6951.927961775606                                 -2.5450233112844038E-14+4.442882937868034i
6951.927961775606                                 -0.810569469035139
6951.927961775606                                 -4.468466341583096E-12-7.02479245342168i
6951.927961775606                                 -1.650512846184112E-5+7.620667655966503E-15i
6951.927961775606                                 -4.468466341583096E-12+7.02479245342168i
6951.927961775606                                 -1.650512846184112E-5-7.620667655966503E-15i
6951.927961775606                                 4.3823501723468706E-12-7.024837007861275i
6951.927961775606                                 -1.6505188226893597E-5+1.920616774270029E-15i
6951.927961775606                                 4.3823501723468706E-12+7.024837007861275i
6951.927961775606                                 -1.6505188226893597E-5-1.920616774270029E-15i
6951.927961775606                                 1.3209593629404813E-13-8.885765873989046i
6951.927961775606                                 -6.545200988809561E-10-1.2459334749285342E-17i
6951.927961775606                                 1.3209593629404813E-13+8.885765873989046i
6951.927961775606                                 -6.545200988809561E-10+1.2459334749285342E-17i
6951.927961775606                                 4.848139533885335E-13-9.934588265292623i
6951.927961775606                                 -0.3619442706385427+1.4491852036312004E-16i
6951.927961775606                                 4.848139533885335E-13+9.934588265292623i
6951.927961775606                                 -0.3619442706385427-1.4491852036312004E-16i
14384.498882876629                                -1.2473214017440428E-13-4.44288293690934i
14384.498882876629                                -0.8105694686953647
14384.498882876629                                -1.2473214017440428E-13+4.44288293690934i
14384.498882876629                                -0.8105694686953647
14384.498882876629                                9.836520812155538E-13-7.024768634678325i
14384.498882876629                                -3.415133042145231E-5-4.220941499641912E-15i
14384.498882876629                                9.836520812155538E-13+7.024768634678325i
14384.498882876629                                -3.415133042145231E-5+4.220941499641912E-15i
14384.498882876629                                -9.750063585191968E-13-7.024860823970664i
14384.498882876629                                -3.415157207192459E-5+5.21339766736812E-15i
14384.498882876629                                -9.750063585191968E-13+7.024860823970664i
14384.498882876629                                -3.415157207192459E-5-5.21339766736812E-15i
14384.498882876629                                -1.008636358577357E-13-8.88576586636005i
14384.498882876629                                -2.797587428977795E-9-1.6692160164662375E-17i
14384.498882876629                                -1.008636358577357E-13+8.88576586636005i
14384.498882876629                                -2.797587428977795E-9+1.6692160164662375E-17i
14384.498882876629                                2.1068629328937222E-12-9.934588263627905i
14384.498882876629                                -0.36194425330560587+5.98287869255403E-17i
14384.498882876629                                2.1068629328937222E-12+9.934588263627905i
14384.498882876629                                -0.36194425330560587-5.98287869255403E-17i
29763.51441631313                                 -1.0160247210925216E-14-4.442882932812966i
29763.51441631313                                 -0.8105694672408291
29763.51441631313                                 -1.0160247210925216E-14+4.442882932812966i
29763.51441631313                                 -0.8105694672408291
29763.51441631313                                 3.3777000346534373E-12-7.024719347509414i
29763.51441631313                                 -7.066355304130172E-5+1.6317070956668063E-15i
29763.51441631313                                 3.3777000346534373E-12+7.024719347509414i
29763.51441631313                                 -7.066355304130172E-5-1.6317070956668063E-15i
29763.51441631313                                 -3.442107975611247E-12-7.024910099884148i
29763.51441631313                                 -7.066458213496759E-5-8.470503792585293E-16i
29763.51441631313                                 -3.442107975611247E-12+7.024910099884148i
29763.51441631313                                 -7.066458213496759E-5+8.470503792585293E-16i
29763.51441631313                                 3.900543699266105E-14-8.885765833672922i
29763.51441631313                                 -1.1992629756789906E-8-1.8222913882826226E-17i
29763.51441631313                                 3.900543699266105E-14+8.885765833672922i
29763.51441631313                                 -1.1992629756789906E-8+1.8222913882826226E-17i
29763.51441631313                                 9.47939505551144E-12-9.934588256532546i
29763.51441631313                                 -0.3619442164087744
29763.51441631313                                 9.47939505551144E-12+9.934588256532546i
29763.51441631313                                 -0.3619442164087744
61584.82110660255                                 8.873324971753746E-14-4.442882915266597i
61584.82110660255                                 -0.810569461013163
61584.82110660255                                 8.873324971753746E-14+4.442882915266597i
61584.82110660255                                 -0.810569461013163
61584.82110660255                                 -1.0224934541673967E-12-7.0246173531139435i
61584.82110660255                                 -1.4621150539780695E-4+3.723419587013947E-15i
61584.82110660255                                 -1.0224934541673967E-12+7.0246173531139435i
61584.82110660255                                 -1.4621150539780695E-4-3.723419587013947E-15i
61584.82110660255                                 8.417176531129602E-13-7.025012046102434i
61584.82110660255                                 -1.4621591113719596E-4+5.226803087069691E-15i
61584.82110660255                                 8.417176531129602E-13+7.025012046102434i
61584.82110660255                                 -1.4621591113719596E-4-5.226803087069691E-15i
61584.82110660255                                 -5.503751865870715E-14-8.88576569374672i
61584.82110660255                                 -5.133489626258774E-8+2.7787206511114453E-18i
61584.82110660255                                 -5.503751865870715E-14+8.88576569374672i
61584.82110660255                                 -5.133489626258774E-8-2.7787206511114453E-18i
61584.82110660255                                 -3.3651008825780617E-12-9.934588208114404i
61584.82110660255                                 -0.38210605449515406-5.05178840746609E-17i
61584.82110660255                                 -3.3651008825780617E-12+9.934588208114404i
61584.82110660255                                 -0.38210605449515406+5.05178840746609E-17i
127427.49857031321                                -7.716193342369893E-14-4.44288284015911i
127427.49857031321                                -0.8105694343506459
127427.49857031321                                -7.716193342369893E-14+4.44288284015911i
127427.49857031321                                -0.8105694343506459
127427.49857031321                                6.24649448095412E-12-7.024406259377768i
127427.49857031321                                -3.025268732864333E-4+1.3132904850242208E-15i
127427.49857031321                                6.24649448095412E-12+7.024406259377768i
127427.49857031321                                -3.025268732864333E-4-1.3132904850242208E-15i
127427.49857031321                                -6.402424769474248E-12-7.025222933527651i
127427.49857031321                                -3.0254574658316225E-4-2.3588937912741816E-15i
127427.49857031321                                -6.402424769474248E-12+7.025222933527651i
127427.49857031321                                -3.0254574658316225E-4+2.3588937912741816E-15i
127427.49857031321                                -1.835780774702006E-13-8.885765094674017i
127427.49857031321                                -2.1977223370612369E-7-3.307813710237395E-17i
127427.49857031321                                -1.835780774702006E-13+8.885765094674017i
127427.49857031321                                -2.1977223370612369E-7+3.307813710237395E-17i
127427.49857031321                                1.746389878624277E-11-9.93458801877606i
127427.49857031321                                -0.3821058676445643+6.080181039922594E-15i
127427.49857031321                                1.746389878624277E-11+9.93458801877606i
127427.49857031321                                -0.3821058676445643-6.080181039922594E-15i
263665.08987303555                                -2.956209014652138E-13-4.442882518583939i
263665.08987303555                                -0.8105693201995503
263665.08987303555                                -2.956209014652138E-13+4.442882518583939i
263665.08987303555                                -0.8105693201995503
263665.08987303555                                -4.368263083532086E-12-7.023969249676683i
263665.08987303555                                -6.259486098599005E-4+1.5740212502091997E-15i
263665.08987303555                                -4.368263083532086E-12+7.023969249676683i
263665.08987303555                                -6.259486098599005E-4-1.5740212502091997E-15i
263665.08987303555                                4.6414123557089436E-12-7.025659060020532i
263665.08987303555                                -6.260294422548965E-4-6.585600266638277E-16i
263665.08987303555                                4.6414123557089436E-12+7.025659060020532i
263665.08987303555                                -6.260294422548965E-4+6.585600266638277E-16i
263665.08987303555                                9.256957267982225E-14-8.885762529835391i
263665.08987303555                                -9.409210922864244E-7+1.693726092590373E-17i
263665.08987303555                                9.256957267982225E-14+8.885762529835391i
263665.08987303555                                -9.409210922864244E-7-1.693726092590373E-17i
263665.08987303555                                1.2306642195744198E-10-9.934587208485091i
263665.08987303555                                -0.3821050900739628-8.621193671707133E-16i
263665.08987303555                                1.2306642195744198E-10+9.934587208485091i
263665.08987303555                                -0.3821050900739628+8.621193671707133E-16i
545559.4781168514                                 4.635097808846354E-14-4.442881141846387i
545559.4781168514                                 -0.8105688314825805
545559.4781168514                                 4.635097808846354E-14+4.442881141846387i
545559.4781168514                                 -0.8105688314825805
545559.4781168514                                 -1.247791753016548E-12-7.0230640441924805i
545559.4781168514                                 -0.001295081398239093+6.376096666094171E-15i
545559.4781168514                                 -1.247791753016548E-12+7.0230640441924805i
545559.4781168514                                 -0.001295081398239093-6.376096666094171E-15i
545559.4781168514                                 1.3374185251036952E-12-7.026560484156221i
545559.4781168514                                 -0.0012954274443781782+5.335947545612285E-16i
545559.4781168514                                 1.3374185251036952E-12+7.026560484156221i
545559.4781168514                                 -0.0012954274443781782-5.335947545612285E-16i
545559.4781168514                                 2.39919885276231E-13-8.885751549114925i
545559.4781168514                                 -4.028360868904894E-6-1.1206592429152265E-17i
545559.4781168514                                 2.39919885276231E-13+8.885751549114925i
545559.4781168514                                 -4.028360868904894E-6+1.1206592429152265E-17i
545559.4781168514                                 1.3602720778721814E-10-9.934583737429232i
545559.4781168514                                 -0.38210173254466023+4.092164337326339E-15i
545559.4781168514                                 1.3602720778721814E-10+9.934583737429232i
545559.4781168514                                 -0.38210173254466023-4.092164337326339E-15i
1128837.8916846884                                -3.083576873327378E-14-4.442875247650844i
1128837.8916846884                                -0.8105667391564577
1128837.8916846884                                -3.083576873327378E-14+4.442875247650844i
1128837.8916846884                                -0.8105667391564577
1128837.8916846884                                -3.4785174327309242E-12-7.021186909800238i