% Model:              Testfile_Rectangle.mph
% Version:            COMSOL 5.2.1.152
% Date:               Jun 22 2016, 14:21
% Table:              Full_EV_N - Full_EV_N (lambda, abs(lambda))
% Omega                                           lambda (rad/s)                                    Eigenwert                                         abs(lambda)
10                                                -2.318826920411875E-5-6.283158672013903i          -2.318826920411875E-5-6.283158672013903i          6.283158672056692
10                                                -0.008281765762462324+6.817468959195167E-4i       -2.318826920411875E-5+6.283158672013903i          6.283158672056692
10                                                -2.318826920411875E-5+6.283158672013903i          1.309175054716689E-15-3.6159679547518813E-6i      3.6159679547518813E-6
10                                                -0.008281765762462324-6.817468959195167E-4i       1.309175054716689E-15+3.6159679547518813E-6i      3.6159679547518813E-6
10                                                1.309175054716689E-15-3.6159679547518813E-6i      1.2809299482008237E-5-3.141592126879485i          3.1415921269055986
10                                                -1.0000000000002187                               1.2809299482008237E-5+3.141592126879485i          3.1415921269055986
10                                                1.309175054716689E-15+3.6159679547518813E-6i      1.3330332212991397E-5-3.1415934016171243i         3.1415934016454057
10                                                -1.0000000000002187                               1.3330332212991397E-5+3.1415934016171243i         3.1415934016454057
10                                                1.2809299482008237E-5-3.141592126879485i          2.812866321884033E-5-4.44288301236623i            4.442883012455273
10                                                -0.0015670647649044319-5.1039637167977346E-8i     2.812866321884033E-5+4.44288301236623i            4.442883012455273
20.6913808111479                                  -1.0048916265981818E-5                            -1.0048916265981818E-5                            1.0048916265981818E-5
20.6913808111479                                  -0.9999999999999996                               -1.9619544610952123E-6-3.141593103207986i         3.141593103208599
20.6913808111479                                  -1.9619544610952123E-6-3.141593103207986i         -1.9619544610952123E-6+3.141593103207986i         3.141593103208599
20.6913808111479                                  -3.0956588693565805E-5+3.7001760216360437E-9i     -1.0876078305352588E-6-4.442883009083707i         4.4428830090838405
20.6913808111479                                  -1.9619544610952123E-6+3.141593103207986i         -1.0876078305352588E-6+4.442883009083707i         4.4428830090838405
20.6913808111479                                  -3.0956588693565805E-5-3.7001760216360437E-9i     1.930684901126763E-6-3.141592341719119i           3.1415923417197122
20.6913808111479                                  -1.0876078305352588E-6-4.442883009083707i         1.930684901126763E-6+3.141592341719119i           3.1415923417197122
20.6913808111479                                  -1.5904152861424628E-5+1.1777136284821423E-8i     8.935269144136343E-6-6.28317903822179i            6.283179038228143
20.6913808111479                                  -1.0876078305352588E-6+4.442883009083707i         8.935269144136343E-6+6.28317903822179i            6.283179038228143
20.6913808111479                                  -1.5904152861424628E-5-1.1777136284821423E-8i     1.00489162635401E-5                               1.00489162635401E-5
42.81332398719393                                 -8.635439397637144E-6                             -8.635439397637144E-6                             8.635439397637144E-6
42.81332398719393                                 -0.9999999999999992                               -2.2528035098743046E-6-3.1415916859880433i        3.141591685988851
42.81332398719393                                 -2.2528035098743046E-6-3.1415916859880433i        -2.2528035098743046E-6+3.1415916859880433i        3.141591685988851
42.81332398719393                                 -2.4740052056971124E-5-5.436616681227208E-9i      1.1951435491516048E-6-4.442884485629958i          4.442884485630119
42.81332398719393                                 -2.2528035098743046E-6+3.1415916859880433i        1.1951435491516048E-6+4.442884485629958i          4.442884485630119
42.81332398719393                                 -2.4740052056971124E-5+5.436616681227208E-9i      4.353644682951016E-6-3.14159268169042i            3.1415926816934365
42.81332398719393                                 1.1951435491516048E-6-4.442884485629958i          4.353644682951016E-6+3.14159268169042i            3.1415926816934365
42.81332398719393                                 -4.106992573925252E-5+1.1960876988482424E-8i      6.2667720520485686E-6-6.283178824489285i          6.283178824492411
42.81332398719393                                 1.1951435491516048E-6+4.442884485629958i          6.2667720520485686E-6+6.283178824489285i          6.283178824492411
42.81332398719393                                 -4.106992573925252E-5-1.1960876988482424E-8i      8.635439404849647E-6                              8.635439404849647E-6
88.58667904100822                                 -2.1612482023749793E-6                            -2.1612482023749793E-6                            2.1612482023749793E-6
88.58667904100822                                 -0.9999999999999993                               2.161248209603449E-6                              2.161248209603449E-6
88.58667904100822                                 2.161248209603449E-6                              2.8982252343629544E-6-3.14159259986951i           3.1415925998708465
88.58667904100822                                 -0.9999999999999994                               2.8982252343629544E-6+3.14159259986951i           3.1415925998708465
88.58667904100822                                 2.8982252343629544E-6-3.14159259986951i           9.819865467485924E-5-3.1415927441525957i          3.1415927456873227
88.58667904100822                                 -0.0033025021654471114-1.8123142111723874E-7i     9.819865467485924E-5+3.1415927441525957i          3.1415927456873227
88.58667904100822                                 2.8982252343629544E-6+3.14159259986951i           1.7684442569757783E-4-4.4428824960517055i         4.442882499571262
88.58667904100822                                 -0.0033025021654471114+1.8123142111723874E-7i     1.7684442569757783E-4+4.4428824960517055i         4.442882499571262
88.58667904100822                                 9.819865467485924E-5-3.1415927441525957i          2.2961816951635054E-4-6.283165182362417i          6.283165186558113
88.58667904100822                                 -7.137336644560822E-4+4.4815467104943655E-7i      2.2961816951635054E-4+6.283165182362417i          6.283165186558113
183.29807108324357                                -9.060209129492362E-6                             -9.060209129492362E-6                             9.060209129492362E-6
183.29807108324357                                -0.9999999999999993                               -5.123383063020944E-6-4.442882800658915i          4.442882800661869
183.29807108324357                                -5.123383063020944E-6-4.442882800658915i          -5.123383063020944E-6+4.442882800658915i          4.442882800661869
183.29807108324357                                -4.704293862116593E-5-1.4711421266684549E-8i      2.5304373883762013E-6-3.141590377464624i          3.141590377465643
183.29807108324357                                -5.123383063020944E-6+4.442882800658915i          2.5304373883762013E-6+3.141590377464624i          3.141590377465643
183.29807108324357                                -4.704293862116593E-5+1.4711421266684549E-8i      4.914903458965885E-6-3.1415944759032834i          3.141594475907128
183.29807108324357                                2.5304373883762013E-6-3.141590377464624i          4.914903458965885E-6+3.1415944759032834i          3.141594475907128
183.29807108324357                                -5.4937303215238046E-5+1.5326949033593475E-8i     9.060209123537732E-6                              9.060209123537732E-6
183.29807108324357                                2.5304373883762013E-6+3.141590377464624i          9.695377842387789E-6-6.283180246673482i           6.2831802466809625
183.29807108324357                                -5.4937303215238046E-5-1.5326949033593475E-8i     9.695377842387789E-6+6.283180246673482i           6.2831802466809625
379.26901907322497                                -5.878830403077331E-5-3.141637454335949i          -5.878830403077331E-5-3.141637454335949i          3.141637454885991
379.26901907322497                                -6.988171447001306E-4-4.710741908518023E-7i       -5.878830403077331E-5+3.141637454335949i          3.141637454885991
379.26901907322497                                -5.878830403077331E-5+3.141637454335949i          -5.705434829392764E-5-3.1415475128712766i         3.141547513389365
379.26901907322497                                -6.988171447001306E-4+4.710741908518023E-7i       -5.705434829392764E-5+3.1415475128712766i         3.141547513389365
379.26901907322497                                -5.705434829392764E-5-3.1415475128712766i         -1.654942044698832E-6                             1.654942044698832E-6
379.26901907322497                                -6.98583672018143E-4-4.676528783757695E-7i        1.6549420362220184E-6                             1.6549420362220184E-6
379.26901907322497                                -5.705434829392764E-5+3.1415475128712766i         1.794422851832108E-4-6.283181827024117i           6.283181829586476
379.26901907322497                                -6.98583672018143E-4+4.676528783757695E-7i        1.794422851832108E-4+6.283181827024117i           6.283181829586476
379.26901907322497                                -1.654942044698832E-6                             2.1740354054564808E-4-4.442882755303623i          4.442882760622726
379.26901907322497                                -0.9999999999999993                               2.1740354054564808E-4+4.442882755303623i          4.442882760622726
784.7599703514607                                 -0.0017149475697693856-3.140732690588847i         -0.0017149475697693856-3.140732690588847i         3.1407331587988536
784.7599703514607                                 -0.4875365671402443+1.0691328286732542E-5i        -0.0017149475697693856+3.140732690588847i         3.1407331587988536
784.7599703514607                                 -0.0017149475697693856+3.140732690588847i         1.3625126241303903E-13-1.3508374418519445E-6i     1.3508374418519513E-6
784.7599703514607                                 -0.4875365671402443-1.0691328286732542E-5i        1.3625126241303903E-13+1.3508374418519445E-6i     1.3508374418519513E-6
784.7599703514607                                 1.3625126241303903E-13-1.3508374418519445E-6i     0.008769442017761841-6.284425304019969i           6.284431422564795
784.7599703514607                                 -1.000000000000204                                0.008769442017761841+6.284425304019969i           6.284431422564795
784.7599703514607                                 1.3625126241303903E-13+1.3508374418519445E-6i     0.010749985794554301-4.4444241267624545i          4.444437127549763
784.7599703514607                                 -1.000000000000204                                0.010749985794554301+4.4444241267624545i          4.444437127549763
784.7599703514607                                 0.008769442017761841-6.284425304019969i           0.011135610401343886-3.1417617456601943i          3.141781480038483
784.7599703514607                                 -0.9451202385065074+2.8423105809103092E-5i        0.011135610401343886+3.1417617456601943i          3.141781480038483
1623.776739188721                                 -6.86763379342708E-5-6.283138768921799i           -6.86763379342708E-5-6.283138768921799i           6.283138769297124
1623.776739188721                                 -0.006391543045797679-9.050327760194738E-4i       -6.86763379342708E-5+6.283138768921799i           6.283138769297124
1623.776739188721                                 -6.86763379342708E-5+6.283138768921799i           -1.738605321167094E-5-4.44288324836089i           4.442883248394908
1623.776739188721                                 -0.006391543045797679+9.050327760194738E-4i       -1.738605321167094E-5+4.44288324836089i           4.442883248394908
1623.776739188721                                 -1.738605321167094E-5-4.44288324836089i           7.35231827750806E-15-2.7607255302788053E-6i       2.7607255302788053E-6
1623.776739188721                                 -5.328873278320241E-4-1.4360226322457548E-7i      7.35231827750806E-15+2.7607255302788053E-6i       2.7607255302788053E-6
1623.776739188721                                 -1.738605321167094E-5+4.44288324836089i           5.541566833696853E-6-3.141635370423838i           3.141635370428725
1623.776739188721                                 -5.328873278320241E-4+1.4360226322457548E-7i      5.541566833696853E-6+3.141635370423838i           3.141635370428725
1623.776739188721                                 7.35231827750806E-15-2.7607255302788053E-6i       5.580240353104873E-6-3.1415501845064524i          3.1415501845114084
1623.776739188721                                 -1.0000000000000813+4.0413584437140743E-16i       5.580240353104873E-6+3.1415501845064524i          3.1415501845114084
3359.818286283781                                 -1.261797316426602E-5-6.2831861512624405i         -1.261797316426602E-5-6.2831861512624405i         6.28318615127511
3359.818286283781                                 -2.5351519472012766E-4-6.236423549724648E-4i      -1.261797316426602E-5+6.2831861512624405i         6.28318615127511
3359.818286283781                                 -1.261797316426602E-5+6.2831861512624405i         -8.921143152685642E-6                             8.921143152685642E-6
3359.818286283781                                 -2.5351519472012766E-4+6.236423549724648E-4i      -7.061586126810552E-6-3.141592663903865i          3.1415926639118013
3359.818286283781                                 -8.921143152685642E-6                             -7.061586126810552E-6+3.141592663903865i          3.1415926639118013
3359.818286283781                                 -0.9999999999999996                               2.429401304865765E-6-4.4428829346429275i          4.442882934643592
3359.818286283781                                 -7.061586126810552E-6-3.141592663903865i          2.429401304865765E-6+4.4428829346429275i          4.442882934643592
3359.818286283781                                 -1.3292494609909095E-4+1.584009488404229E-8i      8.921143162307704E-6                              8.921143162307704E-6
3359.818286283781                                 -7.061586126810552E-6+3.141592663903865i          8.988597979335354E-6-3.1415926740336158i          3.141592674046475
3359.818286283781                                 -1.3292494609909095E-4-1.584009488404229E-8i      8.988597979335354E-6+3.1415926740336158i          3.141592674046475
6951.927961775606                                 -1.60459564322482E-5-6.283174663356486i           -1.60459564322482E-5-6.283174663356486i           6.283174663376975
6951.927961775606                                 -9.130055037274812E-4-4.942453569344591E-4i       -1.60459564322482E-5+6.283174663356486i           6.283174663376975
6951.927961775606                                 -1.60459564322482E-5+6.283174663356486i           8.050980236677443E-17-3.3967621652216347E-6i      3.3967621652216347E-6
6951.927961775606                                 -9.130055037274812E-4+4.942453569344591E-4i       8.050980236677443E-17+3.3967621652216347E-6i      3.3967621652216347E-6
6951.927961775606                                 8.050980236677443E-17-3.3967621652216347E-6i      2.638791032086088E-5-3.141586506615697i           3.1415865067265205
6951.927961775606                                 -1.0000000000001759                               2.638791032086088E-5+3.141586506615697i           3.1415865067265205
6951.927961775606                                 8.050980236677443E-17+3.3967621652216347E-6i      2.6226633986703582E-5-3.141598892709268i          3.1415988928187404
6951.927961775606                                 -1.0000000000001759                               2.6226633986703582E-5+3.141598892709268i          3.1415988928187404
6951.927961775606                                 2.638791032086088E-5-3.141586506615697i           2.9231885764022335E-5-4.44288298177557i           4.442882981871736
6951.927961775606                                 -0.0013222712950294979+1.712811303990405E-7i      2.9231885764022335E-5+4.44288298177557i           4.442882981871736
14384.498882876629                                -6.175645396197214E-5-3.1415924647204636i         -6.175645396197214E-5-3.1415924647204636i         3.141592465327458
14384.498882876629                                -2.363430377188428E-4+1.205798565921649E-7i       -6.175645396197214E-5+3.1415924647204636i         3.141592465327458
14384.498882876629                                -6.175645396197214E-5+3.1415924647204636i         -1.8687236477097009E-6-4.442883108073065i         4.442883108073458
14384.498882876629                                -2.363430377188428E-4-1.205798565921649E-7i       -1.8687236477097009E-6+4.442883108073065i         4.442883108073458
14384.498882876629                                -1.8687236477097009E-6-4.442883108073065i         -6.88824601387293E-15-2.673592706331813E-6i       2.673592706331813E-6
14384.498882876629                                -8.355541772961776E-4-6.883279570036968E-8i       -6.88824601387293E-15+2.673592706331813E-6i       2.673592706331813E-6
14384.498882876629                                -1.8687236477097009E-6+4.442883108073065i         2.0500017844585266E-5-6.283183617736165i          6.283183617769607
14384.498882876629                                -8.355541772961776E-4+6.883279570036968E-8i       2.0500017844585266E-5+6.283183617736165i          6.283183617769607
14384.498882876629                                -6.88824601387293E-15-2.673592706331813E-6i       1.0041382639542283E-4-3.141592679029269i          3.141592680634018
14384.498882876629                                -1.000000000000139+7.341754988098076E-16i         1.0041382639542283E-4+3.141592679029269i          3.141592680634018
29763.51441631313                                 -6.214566591516155E-5-3.141592639579206i          -6.214566591516155E-5-3.141592639579206i          3.141592640193876
29763.51441631313                                 -0.0055650380352977365+1.2428318464533607E-7i     -6.214566591516155E-5+3.141592639579206i          3.141592640193876
29763.51441631313                                 -6.214566591516155E-5+3.141592639579206i          -2.476998083700896E-5-4.442882786083944i          4.4428827861529925
29763.51441631313                                 -0.0055650380352977365-1.2428318464533607E-7i     -2.476998083700896E-5+4.442882786083944i          4.4428827861529925
29763.51441631313                                 -2.476998083700896E-5-4.442882786083944i          2.3532271195622308E-14-3.880342970049796E-6i      3.880342970049796E-6
29763.51441631313                                 -0.0010039903681303074+2.5200225929469274E-8i     2.3532271195622308E-14+3.880342970049796E-6i      3.880342970049796E-6
29763.51441631313                                 -2.476998083700896E-5+4.442882786083944i          6.958084909049704E-9-6.283184681606801i           6.283184681606801
29763.51441631313                                 -0.0010039903681303074-2.5200225929469274E-8i     6.958084909049704E-9+6.283184681606801i           6.283184681606801
29763.51441631313                                 2.3532271195622308E-14-3.880342970049796E-6i      6.18916493552359E-5-3.1415927106078336i           3.1415927112174886
29763.51441631313                                 -1.000000000000124+2.0348748035648502E-16i        6.18916493552359E-5+3.1415927106078336i           3.1415927112174886
61584.82110660255                                 -3.4778468194080854E-5-6.283188692559924i         -3.4778468194080854E-5-6.283188692559924i         6.283188692656176
61584.82110660255                                 -0.001434331687617544+1.459043459210407E-4i       -3.4778468194080854E-5+6.283188692559924i         6.283188692656176
61584.82110660255                                 -3.4778468194080854E-5+6.283188692559924i         -6.684604775177016E-6-3.141536485137066i          3.1415364851441776
61584.82110660255                                 -0.001434331687617544-1.459043459210407E-4i       -6.684604775177016E-6+3.141536485137066i          3.1415364851441776
61584.82110660255                                 -6.684604775177016E-6-3.141536485137066i          -6.444653931259064E-6-3.1416488165488596i         3.14164881655547
61584.82110660255                                 -8.579275032715316E-5+2.0159367844346923E-8i      -6.444653931259064E-6+3.1416488165488596i         3.14164881655547
61584.82110660255                                 -6.684604775177016E-6+3.141536485137066i          -1.5360703914299458E-17-3.537697671988733E-6i     3.537697671988733E-6
61584.82110660255                                 -8.579275032715316E-5-2.0159367844346923E-8i      -1.5360703914299458E-17+3.537697671988733E-6i     3.537697671988733E-6
61584.82110660255                                 -6.444653931259064E-6-3.1416488165488596i         2.2706369115397775E-5-4.442882978888249i          4.442882978946272
61584.82110660255                                 -1.2887559958865496E-4+1.6368001109868318E-7i     2.2706369115397775E-5+4.442882978888249i          4.442882978946272
127427.49857031321                                -1.6735152586147545E-4-3.1415926510029255i        -1.6735152586147545E-4-3.1415926510029255i        3.1415926554603035
127427.49857031321                                -0.0017683717682886865-9.627149695831643E-8i      -1.6735152586147545E-4+3.1415926510029255i        3.1415926554603035
127427.49857031321                                -1.6735152586147545E-4+3.1415926510029255i        -3.576794209750366E-5-4.442882649250592i          4.442882649394569
127427.49857031321                                -0.0017683717682886865+9.627149695831643E-8i      -3.576794209750366E-5+4.442882649250592i          4.442882649394569
127427.49857031321                                -3.576794209750366E-5-4.442882649250592i          -3.069669995996295E-5-6.2831859193428485i         6.283185919417833
127427.49857031321                                -0.0010930677690721557-1.3229657708917675E-7i     -3.069669995996295E-5+6.2831859193428485i         6.283185919417833
127427.49857031321                                -3.576794209750366E-5+4.442882649250592i          -4.152094450780368E-15-3.5112116810547686E-6i     3.5112116810547686E-6
127427.49857031321                                -0.0010930677690721557+1.3229657708917675E-7i     -4.152094450780368E-15+3.5112116810547686E-6i     3.5112116810547686E-6
127427.49857031321                                -3.069669995996295E-5-6.2831859193428485i         1.471474644015691E-4-3.1415927654233595i          3.141592768869442
127427.49857031321                                -0.0022246243474414577-6.13514515196466E-5i       1.471474644015691E-4+3.1415927654233595i          3.141592768869442
263665.08987303555                                -1.279878212145745E-4-3.1415925050445144i         -1.279878212145745E-4-3.1415925050445144i         3.141592507651613
263665.08987303555                                -5.688662704815139E-4-1.9269629606737976E-7i      -1.279878212145745E-4+3.1415925050445144i         3.141592507651613
263665.08987303555                                -1.279878212145745E-4+3.1415925050445144i         -1.0768784369792447E-14-3.510213414796729E-6i     3.510213414796729E-6
263665.08987303555                                -5.688662704815139E-4+1.9269629606737976E-7i      -1.0768784369792447E-14+3.510213414796729E-6i     3.510213414796729E-6
263665.08987303555                                -1.0768784369792447E-14-3.510213414796729E-6i     2.5526654320284867E-6-4.442882884263398i          4.442882884264131
263665.08987303555                                -1.0000000000001368                               2.5526654320284867E-6+4.442882884263398i          4.442882884264131
263665.08987303555                                -1.0768784369792447E-14+3.510213414796729E-6i     4.833738091029408E-5-6.283186483610339i           6.283186483796272
263665.08987303555                                -1.0000000000001368                               4.833738091029408E-5+6.283186483610339i           6.283186483796272
263665.08987303555                                2.5526654320284867E-6-4.442882884263398i          1.288949870693738E-4-3.1415931781925486i          3.141593180836735
263665.08987303555                                -9.857692679738495E-4-8.08401311975413E-7i        1.288949870693738E-4+3.1415931781925486i          3.141593180836735
545559.4781168514                                 -1.6887275350201054E-5                            -1.6887275350201054E-5                            1.6887275350201054E-5
545559.4781168514                                 -0.9999999999999993                               -5.589254366125863E-6-4.442883475385744i          4.44288347538926
545559.4781168514                                 -5.589254366125863E-6-4.442883475385744i          -5.589254366125863E-6+4.442883475385744i          4.44288347538926
545559.4781168514                                 -0.06522355904066306+7.978441795400234E-7i        4.802797822653423E-6-6.283169728477135i           6.2831697284789705
545559.4781168514                                 -5.589254366125863E-6+4.442883475385744i          4.802797822653423E-6+6.283169728477135i           6.2831697284789705
545559.4781168514                                 -0.06522355904066306-7.978441795400234E-7i        1.1502397975820873E-5-3.1414419644308693i         3.141441964451927
545559.4781168514                                 4.802797822653423E-6-6.283169728477135i           1.1502397975820873E-5+3.1414419644308693i         3.141441964451927
545559.4781168514                                 -0.09455977793668484+1.685333282270858E-4i        1.2146049538799715E-5-3.141745643394141i          3.1417456434176194
545559.4781168514                                 4.802797822653423E-6+6.283169728477135i           1.2146049538799715E-5+3.141745643394141i          3.1417456434176194
545559.4781168514                                 -0.09455977793668484-1.685333282270858E-4i        1.688727526745309E-5                              1.688727526745309E-5
1128837.8916846884                                -7.458268305093329E-5-3.141597112052256i          -7.458268305093329E-5-3.141597112052256i          3.1415971129375664
1128837.8916846884                                -1.9767336426053112E-4+6.565574578989585E-8i      -7.458268305093329E-5+3.141597112052256i          3.1415971129375664
1128837.8916846884                                -7.458268305093329E-5+3.141597112052256i          -2.6671542640743116E-5-6.2831906700237266i        6.2831906700803355
1128837.8916846884                                -1.9767336426053112E-4-6.565574578989585E-8i      -2.6671542640743116E-5+6.2831906700237266i        6.2831906700803355
1128837.8916846884                                -2.6671542640743116E-5-6.2831906700237266i        -8.433258681381473E-6                             8.433258681381473E-6
1128837.8916846884                                -3.248996802563271E-5+2.1786606769607262E-4i      1.2916972862121694E-6-4.442884836705492i          4.442884836705679
1128837.8916846884                                -2.6671542640743116E-5+6.2831906700237266i        1.2916972862121694E-6+4.442884836705492i          4.442884836705679
1128837.8916846884                                -3.248996802563271E-5-2.1786606769607262E-4i      8.433258689979862E-6                              8.433258689979862E-6
1128837.8916846884                                -8.433258681381473E-6                             7.706171484130925E-5-3.141598356377987i           3.141598357323128
1128837.8916846884                                -0.9999999999999996                               7.706171484130925E-5+3.141598356377987i           3.141598357323128
2335721.4690901213                                -3.0171060816498187E-4-3.141618170245317i         -3.0171060816498187E-4-3.141618170245317i         3.141618184732961
2335721.4690901213                                -6.016909091037338E-4-1.7656206210873908E-7i      -3.0171060816498187E-4+3.141618170245317i         3.141618184732961
2335721.4690901213                                -3.0171060816498187E-4+3.141618170245317i         -2.5691850823863023E-6-4.4428918047635895i        4.442891804764332
2335721.4690901213                                -6.016909091037338E-4+1.7656206210873908E-7i      -2.5691850823863023E-6+4.4428918047635895i        4.442891804764332