% Model:              Testfile_Rectangle.mph
% Version:            COMSOL 5.2.1.152
% Date:               Jun 22 2016, 14:21
% Table:              Lin_EV_D - Lin_EV_D (lambda, abs(lambda))
% Omega                                           lambda (rad/s)
10                                                -7.226988917545986E-14-4.442882938155854i
10                                                -0.8105694691386769
10                                                -7.226988917545986E-14+4.442882938155854i
10                                                -0.8105694691386769
10                                                -2.687464864739863E-13-7.024814698997588i
10                                                -2.3747231231428157E-8+5.551238697291853E-15i
10                                                -2.687464864739863E-13+7.024814698997588i
10                                                -2.3747231231428157E-8-5.551238697291853E-15i
10                                                1.140707591411153E-13-7.024814763086286i
10                                                -2.373648770727328E-8+8.584160183879673E-15i
10                                                1.140707591411153E-13+7.024814763086286i
10                                                -2.373648770727328E-8-8.584160183879673E-15i
10                                                -3.2761840675796634E-14-8.885765876317382i
10                                                -5.78497719860873E-13+6.66809296253569E-18i
10                                                -3.2761840675796634E-14+8.885765876317382i
10                                                -5.78497719860873E-13-6.66809296253569E-18i
10                                                8.75288073710169E-14-9.934588265795787i
10                                                -0.36194428648872917+5.829773650758083E-17i
10                                                8.75288073710169E-14+9.934588265795787i
10                                                -0.36194428648872917-5.829773650758083E-17i
20.6913808111479                                  -4.02184846001029E-14-4.442882938158609i
20.6913808111479                                  -0.8105694691386572
20.6913808111479                                  -4.02184846001029E-14+4.442882938158609i
20.6913808111479                                  -0.8105694691386572
20.6913808111479                                  -2.4458843088021627E-12-7.02481466473855i
20.6913808111479                                  -4.912545801439433E-8+2.624164214650719E-15i
20.6913808111479                                  -2.4458843088021627E-12+7.02481466473855i
20.6913808111479                                  -4.912545801439433E-8-2.624164214650719E-15i
20.6913808111479                                  2.5475026872548174E-12-7.024814797346966i
20.6913808111479                                  -4.912633258372962E-8+1.0880258264475594E-15i
20.6913808111479                                  2.5475026872548174E-12+7.024814797346966i
20.6913808111479                                  -4.912633258372962E-8-1.0880258264475594E-15i
20.6913808111479                                  9.851765629540579E-14-8.885765876320331i
20.6913808111479                                  -3.722250649028612E-12+1.2767640205517553E-16i
20.6913808111479                                  9.851765629540579E-14+8.885765876320331i
20.6913808111479                                  -3.722250649028612E-12-1.2767640205517553E-16i
20.6913808111479                                  -1.7324719999643977E-13-9.934588265795032i
20.6913808111479                                  -0.36194428643449295+3.0477573439290027E-15i
20.6913808111479                                  -1.7324719999643977E-13+9.934588265795032i
20.6913808111479                                  -0.36194428643449295-3.0477573439290027E-15i
42.81332398719393                                 1.2205435956486167E-13-4.442882938158666i
42.81332398719393                                 -0.8105694691386603
42.81332398719393                                 1.2205435956486167E-13+4.442882938158666i
42.81332398719393                                 -0.8105694691386603
42.81332398719393                                 -6.637028608931632E-12-7.024814593845235i
42.81332398719393                                 -1.016433461319387E-7+1.853193866530344E-15i
42.81332398719393                                 -6.637028608931632E-12+7.024814593845235i
42.81332398719393                                 -1.016433461319387E-7-1.853193866530344E-15i
42.81332398719393                                 6.556411952141156E-12-7.024814868234044i
42.81332398719393                                 -1.0165037594962976E-7+2.8738064979929713E-15i
42.81332398719393                                 6.556411952141156E-12+7.024814868234044i
42.81332398719393                                 -1.0165037594962976E-7-2.8738064979929713E-15i
42.81332398719393                                 -1.0280880590250908E-13-8.885765876318866i
42.81332398719393                                 -2.044339211032674E-12+1.4880540255757401E-16i
42.81332398719393                                 -1.0280880590250908E-13+8.885765876318866i
42.81332398719393                                 -2.044339211032674E-12-1.4880540255757401E-16i
42.81332398719393                                 -4.0231561917266646E-14-9.934588265792641i
42.81332398719393                                 -0.3619442864009776+3.586710647805871E-15i
42.81332398719393                                 -4.0231561917266646E-14+9.934588265792641i
42.81332398719393                                 -0.3619442864009776-3.586710647805871E-15i
88.58667904100822                                 3.343634030667162E-13-4.44288293814774i
88.58667904100822                                 -0.8105694691386339
88.58667904100822                                 3.343634030667162E-13+4.44288293814774i
88.58667904100822                                 -0.8105694691386339
88.58667904100822                                 1.5822643025097575E-12-7.024814447168845i
88.58667904100822                                 -2.1032729773084924E-7+1.9145799770723925E-15i
88.58667904100822                                 1.5822643025097575E-12+7.024814447168845i
88.58667904100822                                 -2.1032729773084924E-7-1.9145799770723925E-15i
88.58667904100822                                 -1.4334953781869575E-12-7.024815014914926i
88.58667904100822                                 -2.103149962759754E-7+4.688209729697641E-15i
88.58667904100822                                 -1.4334953781869575E-12+7.024815014914926i
88.58667904100822                                 -2.103149962759754E-7-4.688209729697641E-15i
88.58667904100822                                 -2.0029941625548256E-13-8.885765876317766i
88.58667904100822                                 -2.1917265859774816E-12+2.8918087765111334E-17i
88.58667904100822                                 -2.0029941625548256E-13+8.885765876317766i
88.58667904100822                                 -2.1917265859774816E-12-2.8918087765111334E-17i
88.58667904100822                                 -1.1041162162548902E-12-9.934588265794485i
88.58667904100822                                 -0.36194428631372944+3.960212396209242E-16i
88.58667904100822                                 -1.1041162162548902E-12+9.934588265794485i
88.58667904100822                                 -0.36194428631372944-3.960212396209242E-16i
183.29807108324357                                -1.352213337247531E-13-4.442882938132255i
183.29807108324357                                -0.8105694691386123
183.29807108324357                                -1.352213337247531E-13+4.442882938132255i
183.29807108324357                                -0.8105694691386123
183.29807108324357                                1.3915063546062839E-11-7.0248141436726055i
183.29807108324357                                -4.351874692199851E-7+2.3913751920043913E-15i
183.29807108324357                                1.3915063546062839E-11+7.0248141436726055i
183.29807108324357                                -4.351874692199851E-7-2.3913751920043913E-15i
183.29807108324357                                -1.3932275565701792E-11-7.024815318416887i
183.29807108324357                                -4.3517965516590424E-7+1.016394923546003E-15i
183.29807108324357                                -1.3932275565701792E-11+7.024815318416887i
183.29807108324357                                -4.3517965516590424E-7-1.016394923546003E-15i
183.29807108324357                                1.661327954218717E-14-8.88576587632599i
183.29807108324357                                -6.138405813721112E-13+3.982675877941632E-17i
183.29807108324357                                1.661327954218717E-14+8.88576587632599i
183.29807108324357                                -6.138405813721112E-13-3.982675877941632E-17i
183.29807108324357                                -4.549019234802149E-12-9.934588265779167i
183.29807108324357                                -0.36194428610225743+1.3446806418708628E-16i
183.29807108324357                                -4.549019234802149E-12+9.934588265779167i
183.29807108324357                                -0.36194428610225743-1.3446806418708628E-16i
379.26901907322497                                -1.2347452470470593E-13-4.44288293815798i
379.26901907322497                                -0.8105694691383478
379.26901907322497                                -1.2347452470470593E-13+4.44288293815798i
379.26901907322497                                -0.8105694691383478
379.26901907322497                                4.480687327226619E-12-7.024813515683234i
379.26901907322497                                -9.00456396468485E-7+1.8972524523722603E-15i
379.26901907322497                                4.480687327226619E-12+7.024813515683234i
379.26901907322497                                -9.00456396468485E-7-1.8972524523722603E-15i
379.26901907322497                                -4.3698587143806515E-12-7.024815946393581i
379.26901907322497                                -9.004526181677916E-7+3.013839452251459E-15i
379.26901907322497                                -4.3698587143806515E-12+7.024815946393581i
379.26901907322497                                -9.004526181677916E-7-3.013839452251459E-15i
379.26901907322497                                5.634666112908615E-13-8.88576587631689i
379.26901907322497                                -5.319171875284998E-13+6.547026948703133E-16i
379.26901907322497                                5.634666112908615E-13+8.88576587631689i
379.26901907322497                                -5.319171875284998E-13-6.547026948703133E-16i
379.26901907322497                                -1.3881645101307073E-11-9.934588265800327i
379.26901907322497                                -0.3619442856661289-4.200008862289715E-16i
379.26901907322497                                -1.3881645101307073E-11+9.934588265800327i
379.26901907322497                                -0.3619442856661289+4.200008862289715E-16i
784.7599703514607                                 1.3410636415111705E-14-4.442882938153985i
784.7599703514607                                 -0.8105694691373772
784.7599703514607                                 1.3410636415111705E-14+4.442882938153985i
784.7599703514607                                 -0.8105694691373772
784.7599703514607                                 -4.46706882929122E-12-7.02481221628973i
784.7599703514607                                 -1.8631621116501195E-6+7.95151213088019E-16i
784.7599703514607                                 -4.46706882929122E-12+7.02481221628973i
784.7599703514607                                 -1.8631621116501195E-6-7.95151213088019E-16i
784.7599703514607                                 4.379344710935957E-12-7.0248172457641544i
784.7599703514607                                 -1.8631673788494657E-6-1.8077695128528743E-15i
784.7599703514607                                 4.379344710935957E-12+7.0248172457641544i
784.7599703514607                                 -1.8631673788494657E-6+1.8077695128528743E-15i
784.7599703514607                                 2.1350213213252353E-14-8.885765876277606i
784.7599703514607                                 -7.053691992875367E-12-4.594348364790925E-17i
784.7599703514607                                 2.1350213213252353E-14+8.885765876277606i
784.7599703514607                                 -7.053691992875367E-12+4.594348364790925E-17i
784.7599703514607                                 -7.822554399554721E-11-9.934588265812188i
784.7599703514607                                 -0.3619442847340919
784.7599703514607                                 -7.822554399554721E-11+9.934588265812188i
784.7599703514607                                 -0.3619442847340919
1623.776739188721                                 -6.068229122825705E-15-4.442882938124492i
1623.776739188721                                 -0.8105694691331101
1623.776739188721                                 -6.068229122825705E-15+4.442882938124492i
1623.776739188721                                 -0.8105694691331101
1623.776739188721                                 -3.5189682229227605E-12-7.0248095276520575i
1623.776739188721                                 -3.855147226945791E-6+7.014291706254651E-15i
1623.776739188721                                 -3.5189682229227605E-12+7.0248095276520575i
1623.776739188721                                 -3.855147226945791E-6-7.014291706254651E-15i
1623.776739188721                                 3.45367186833497E-12-7.024819934329493i
1623.776739188721                                 -3.8551430934259975E-6+2.66874672842082E-15i
1623.776739188721                                 3.45367186833497E-12+7.024819934329493i
1623.776739188721                                 -3.8551430934259975E-6-2.66874672842082E-15i
1623.776739188721                                 -4.661209525224406E-15-8.885765876150696i
1623.776739188721                                 -2.8534309672168546E-11-5.655370064645004E-18i
1623.776739188721                                 -4.661209525224406E-15+8.885765876150696i
1623.776739188721                                 -2.8534309672168546E-11+5.655370064645004E-18i
1623.776739188721                                 -1.3403100849730074E-10-9.934588265544559i
1623.776739188721                                 -0.3619442828229024+1.0746868246880054E-16i
1623.776739188721                                 -1.3403100849730074E-10+9.934588265544559i
1623.776739188721                                 -0.3619442828229024-1.0746868246880054E-16i
3359.818286283781                                 3.332873125654544E-14-4.442882938018425i
3359.818286283781                                 -0.8105694691149271
3359.818286283781                                 3.332873125654544E-14+4.442882938018425i
3359.818286283781                                 -0.8105694691149271
3359.818286283781                                 5.248907016517855E-13-7.024803964400144i
3359.818286283781                                 -7.9768382550689E-6-2.7472602306225157E-15i
3359.818286283781                                 5.248907016517855E-13+7.024803964400144i
3359.818286283781                                 -7.9768382550689E-6+2.7472602306225157E-15i
3359.818286283781                                 -3.940091682844644E-13-7.024825497250559i
3359.818286283781                                 -7.976817458789214E-6+2.0978557516526964E-15i
3359.818286283781                                 -3.940091682844644E-13+7.024825497250559i
3359.818286283781                                 -7.976817458789214E-6-2.0978557516526964E-15i
3359.818286283781                                 5.997394694413358E-14-8.88576587560185i
3359.818286283781                                 -1.2504074091117274E-10-5.935475353266389E-18i
3359.818286283781                                 5.997394694413358E-14+8.88576587560185i
3359.818286283781                                 -1.2504074091117274E-10+5.935475353266389E-18i
3359.818286283781                                 -5.263439793246929E-10-9.93458826629281i
3359.818286283781                                 -0.3619442788394444+1.812504685369698E-15i
3359.818286283781                                 -5.263439793246929E-10+9.93458826629281i
3359.818286283781                                 -0.3619442788394444-1.812504685369698E-15i
6951.927961775606                                 2.480088169014472E-14-4.442882937557085i
6951.927961775606                                 -0.8105694690370703
6951.927961775606                                 2.480088169014472E-14+4.442882937557085i
6951.927961775606                                 -0.8105694690370703
6951.927961775606                                 -2.41172531455882E-12-7.0247924528917745i
6951.927961775606                                 -1.650520446730175E-5+3.6081055356981776E-15i
6951.927961775606                                 -2.41172531455882E-12+7.0247924528917745i
6951.927961775606                                 -1.650520446730175E-5-3.6081055356981776E-15i
6951.927961775606                                 2.361352918560105E-12-7.024837007333031i
6951.927961775606                                 -1.650511200559447E-5+1.7903708142241157E-15i
6951.927961775606                                 2.361352918560105E-12+7.024837007333031i
6951.927961775606                                 -1.650511200559447E-5-1.7903708142241157E-15i
6951.927961775606                                 -4.488638388209405E-14-8.885765873240233i
6951.927961775606                                 -5.373420408173398E-10+4.618438093173258E-18i
6951.927961775606                                 -4.488638388209405E-14+8.885765873240233i
6951.927961775606                                 -5.373420408173398E-10-4.618438093173258E-18i
6951.927961775606                                 7.041337322036684E-13-9.934588264563136i
6951.927961775606                                 -0.3619442706343501+1.3171349520985286E-16i
6951.927961775606                                 7.041337322036684E-13+9.934588264563136i
6951.927961775606                                 -0.3619442706343501-1.3171349520985286E-16i
14384.498882876629                                6.155305267815251E-14-4.442882935595305i
14384.498882876629                                -0.8105694687038335
14384.498882876629                                6.155305267815251E-14+4.442882935595305i
14384.498882876629                                -0.8105694687038335
14384.498882876629                                -5.7654070485399605E-12-7.0247686324167775i
14384.498882876629                                -3.415165193321032E-5-2.363029270820473E-15i
14384.498882876629                                -5.7654070485399605E-12+7.0247686324167775i
14384.498882876629                                -3.415165193321032E-5+2.363029270820473E-15i
14384.498882876629                                5.76088387133433E-12-7.0248608217088835i
14384.498882876629                                -3.4151250620553694E-5-6.769452969917335E-16i
14384.498882876629                                5.76088387133433E-12+7.0248608217088835i
14384.498882876629                                -3.4151250620553694E-5+6.769452969917335E-16i
14384.498882876629                                -9.578799904587915E-14-8.885765863142913i
14384.498882876629                                -2.300666727843078E-9+3.367245695200472E-17i
14384.498882876629                                -9.578799904587915E-14+8.885765863142913i
14384.498882876629                                -2.300666727843078E-9-3.367245695200472E-17i
14384.498882876629                                2.1813581650108357E-12-9.934588260508619i
14384.498882876629                                -0.36194425329675445+7.67870640365373E-17i
14384.498882876629                                2.1813581650108357E-12+9.934588260508619i
14384.498882876629                                -0.36194425329675445-7.67870640365373E-17i
29763.51441631313                                 7.114520315835939E-14-4.442882927181369i
29763.51441631313                                 -0.8105694672773837
29763.51441631313                                 7.114520315835939E-14+4.442882927181369i
29763.51441631313                                 -0.8105694672773837
29763.51441631313                                 8.594505563548906E-12-7.024719337810012i
29763.51441631313                                 -7.066493898885283E-5+3.738433737349313E-15i
29763.51441631313                                 8.594505563548906E-12+7.024719337810012i
29763.51441631313                                 -7.066493898885283E-5-3.738433737349313E-15i
29763.51441631313                                 -8.560556668077241E-12-7.02491009018655i
29763.51441631313                                 -7.066319674470909E-5+2.698370617181353E-15i
29763.51441631313                                 -8.560556668077241E-12+7.02491009018655i
29763.51441631313                                 -7.066319674470909E-5-2.698370617181353E-15i
29763.51441631313                                 3.825377918879029E-14-8.885765819910178i
29763.51441631313                                 -9.855630285620569E-9-7.591626172318593E-18i
29763.51441631313                                 3.825377918879029E-14+8.885765819910178i
29763.51441631313                                 -9.855630285620569E-9+7.591626172318593E-18i
29763.51441631313                                 9.218307140252281E-12-9.93458824316159i
29763.51441631313                                 -0.3619442163613268
29763.51441631313                                 9.218307140252281E-12+9.93458824316159i
29763.51441631313                                 -0.3619442163613268
61584.82110660255                                 -2.5432608158686486E-14-4.442882891146053i
61584.82110660255                                 -0.8105694611696851
61584.82110660255                                 -2.5432608158686486E-14+4.442882891146053i
61584.82110660255                                 -0.8105694611696851
61584.82110660255                                 5.9255033051704415E-12-7.024617311587761i
61584.82110660255                                 -1.4621742543654485E-4+1.832722631986037E-15i
61584.82110660255                                 5.9255033051704415E-12+7.024617311587761i
61584.82110660255                                 -1.4621742543654485E-4-1.832722631986037E-15i
61584.82110660255                                 -6.225350229164096E-12-7.025012004586078i
61584.82110660255                                 -1.4620999627832488E-4+5.98861710829192E-15i
61584.82110660255                                 -6.225350229164096E-12+7.025012004586078i
61584.82110660255                                 -1.4620999627832488E-4-5.98861710829192E-15i
61584.82110660255                                 1.4454424441098144E-13-8.885765634812437i
61584.82110660255                                 -4.2200018363040816E-8+2.2280059134303282E-17i
61584.82110660255                                 1.4454424441098144E-13+8.885765634812437i
61584.82110660255                                 -4.2200018363040816E-8-2.2280059134303282E-17i
61584.82110660255                                 -3.3388033473615978E-12-9.93458815137304i
61584.82110660255                                 -0.3821060541183653
61584.82110660255                                 -3.3388033473615978E-12+9.93458815137304i
61584.82110660255                                 -0.3821060541183653
127427.49857031321                                -6.016309970431003E-14-4.442882736872723i
127427.49857031321                                -0.8105694350210098
127427.49857031321                                -6.016309970431003E-14+4.442882736872723i
127427.49857031321                                -0.8105694350210098
127427.49857031321                                -4.599385837540047E-12-7.024406081561095i
127427.49857031321                                -3.025522361497939E-4+5.0069791609956215E-15i
127427.49857031321                                -4.599385837540047E-12+7.024406081561095i
127427.49857031321                                -3.025522361497939E-4-5.0069791609956215E-15i
127427.49857031321                                4.853311032827245E-12-7.025222755815385i
127427.49857031321                                -3.025204254063183E-4-2.382557946291666E-15i
127427.49857031321                                4.853311032827245E-12+7.025222755815385i
127427.49857031321                                -3.025204254063183E-4+2.382557946291666E-15i
127427.49857031321                                1.2358262414963992E-13-8.88576484235259i
127427.49857031321                                -1.80671395766665E-7+1.1161111143941956E-17i
127427.49857031321                                1.2358262414963992E-13+8.88576484235259i
127427.49857031321                                -1.80671395766665E-7-1.1161111143941956E-17i
127427.49857031321                                1.9592520017714394E-11-9.934587775840312i
127427.49857031321                                -0.3821058740025301+5.848405305358235E-15i
127427.49857031321                                1.9592520017714394E-11+9.934587775840312i
127427.49857031321                                -0.3821058740025301-5.848405305358235E-15i
263665.08987303555                                4.063917374103263E-14-4.442882076373687i
263665.08987303555                                -0.8105693230696945
263665.08987303555                                4.063917374103263E-14+4.442882076373687i
263665.08987303555                                -0.8105693230696945
263665.08987303555                                1.8075569396488311E-12-7.023968488110504i
263665.08987303555                                -6.260573069541317E-4+7.758658842268718E-15i
263665.08987303555                                1.8075569396488311E-12+7.023968488110504i
263665.08987303555                                -6.260573069541317E-4-7.758658842268718E-15i
263665.08987303555                                -1.7895889818509078E-12-7.0256582993800345i
263665.08987303555                                -6.259211135260368E-4-2.9289318141362262E-15i
263665.08987303555                                -1.7895889818509078E-12+7.0256582993800345i
263665.08987303555                                -6.259211135260368E-4+2.9289318141362262E-15i
263665.08987303555                                2.447873528512199E-13-8.88576144958313i
263665.08987303555                                -7.735031724959104E-7-5.923726312490233E-18i
263665.08987303555                                2.447873528512199E-13+8.88576144958313i
263665.08987303555                                -7.735031724959104E-7+5.923726312490233E-18i
263665.08987303555                                -4.691556036368057E-11-9.93458616803922i
263665.08987303555                                -0.38210509882262766+1.3144345217716044E-16i
263665.08987303555                                -4.691556036368057E-11+9.93458616803922i
263665.08987303555                                -0.38210509882262766-1.3144345217716044E-16i
545559.4781168514                                 5.1236158119141595E-14-4.442879248666977i
545559.4781168514                                 -0.8105688437697106
545559.4781168514                                 5.1236158119141595E-14+4.442879248666977i
545559.4781168514                                 -0.8105688437697106
545559.4781168514                                 -2.1559404558555834E-13-7.023060781556815i
545559.4781168514                                 -0.0012955475766375278+1.4873774807565876E-16i
545559.4781168514                                 -2.1559404558555834E-13+7.023060781556815i
545559.4781168514                                 -0.0012955475766375278-1.4873774807565876E-16i
545559.4781168514                                 2.1175896373810422E-13-7.026557229702229i
545559.4781168514                                 -0.0012949645311108454+4.037366762135896E-15i
545559.4781168514                                 2.1175896373810422E-13+7.026557229702229i
545559.4781168514                                 -0.0012949645311108454-4.037366762135896E-15i
545559.4781168514                                 1.3645585704973097E-13-8.885746924155743i
545559.4781168514                                 -3.311613756767421E-6-3.7835821950664286E-17i
545559.4781168514                                 1.3645585704973097E-13+8.885746924155743i
545559.4781168514                                 -3.311613756767421E-6+3.7835821950664286E-17i
545559.4781168514                                 -5.700383611986962E-11-9.934579284558517i
545559.4781168514                                 -0.3821017737137657-1.618629205366606E-16i
545559.4781168514                                 -5.700383611986962E-11+9.934579284558517i
545559.4781168514                                 -0.3821017737137657+1.618629205366606E-16i
1128837.8916846884                                -2.145804329072693E-15-4.442867142289878i
1128837.8916846884                                -0.8105667917374635
1128837.8916846884                                -2.145804329072693E-15+4.442867142289878i
1128837.8916846884                                -0.8105667917374635
1128837.8916846884                                -2.1095744408805103E-12-7.021172922554616i