% Model:              Testfile_Rectangle.mph
% Version:            COMSOL 5.2.1.152
% Date:               Jun 22 2016, 14:21
% Table:              Lin_EV_N - Lin_EV_N (lambda, abs(lambda))
% Omega                                           lambda (rad/s)                                    Eigenwert                                         abs(lambda)
10                                                -1.2895539534715127E-5-3.1415924874553225i        -1.2895539534715127E-5-3.1415924874553225i        3.1415924874817893
10                                                -2.8303481817322523E-4+5.783182352331745E-8i      -1.2895539534715127E-5+3.1415924874553225i        3.1415924874817893
10                                                -1.2895539534715127E-5+3.1415924874553225i        4.302724101728828E-15-3.434394146153452E-6i       3.434394146153452E-6
10                                                -2.8303481817322523E-4-5.783182352331745E-8i      4.302724101728828E-15+3.434394146153452E-6i       3.434394146153452E-6
10                                                4.302724101728828E-15-3.434394146153452E-6i       3.4682595552356523E-7-6.283166437112649i          6.2831664371126585
10                                                -1.0000000000001552+3.5567680277098326E-16i       3.4682595552356523E-7+6.283166437112649i          6.2831664371126585
10                                                4.302724101728828E-15+3.434394146153452E-6i       6.790713889034997E-6-3.1415927039088976i          3.1415927039162366
10                                                -1.0000000000001552-3.5567680277098326E-16i       6.790713889034997E-6+3.1415927039088976i          3.1415927039162366
10                                                3.4682595552356523E-7-6.283166437112649i          2.570183431385759E-5-4.4428829267542715i          4.442882926828613
10                                                2.055840029320167E-4+2.71720673784006E-4i         2.570183431385759E-5+4.4428829267542715i          4.442882926828613
20.6913808111479                                  -7.587764825958568E-5-6.283118741743387i          -7.587764825958568E-5-6.283118741743387i          6.283118742201553
20.6913808111479                                  6.665927211854245E-5-1.6393250617352582E-5i       -7.587764825958568E-5+6.283118741743387i          6.283118742201553
20.6913808111479                                  -7.587764825958568E-5+6.283118741743387i          -2.9269279583612697E-5-4.4428900375884774i        4.442890037684889
20.6913808111479                                  6.665927211854245E-5+1.6393250617352582E-5i       -2.9269279583612697E-5+4.4428900375884774i        4.442890037684889
20.6913808111479                                  -2.9269279583612697E-5-4.4428900375884774i        -1.3777468110600589E-5-3.1415830350177703i        3.1415830350479808
20.6913808111479                                  -3.674625464441715E-4+1.138547613906839E-7i       -1.3777468110600589E-5+3.1415830350177703i        3.1415830350479808
20.6913808111479                                  -2.9269279583612697E-5+4.4428900375884774i        -1.1587124795861111E-15-3.4429376780791004E-6i    3.4429376780791004E-6
20.6913808111479                                  -3.674625464441715E-4-1.138547613906839E-7i       -1.1587124795861111E-15+3.4429376780791004E-6i    3.4429376780791004E-6
20.6913808111479                                  -1.3777468110600589E-5-3.1415830350177703i        5.933020723623926E-6-3.141592728796186i           3.141592728801788
20.6913808111479                                  -7.878811021196648E-5-1.0326186315620334E-9i      5.933020723623926E-6+3.141592728796186i           3.141592728801788
42.81332398719393                                 -4.850563039203361E-5-6.283182678788776i          -4.850563039203361E-5-6.283182678788776i          6.283182678976006
42.81332398719393                                 -0.012783635749700211+4.701553185917656E-4i       -4.850563039203361E-5+6.283182678788776i          6.283182678976006
42.81332398719393                                 -4.850563039203361E-5+6.283182678788776i          -1.3279302612438693E-5-3.1415925756674596i        3.141592575695525
42.81332398719393                                 -0.012783635749700211-4.701553185917656E-4i       -1.3279302612438693E-5+3.1415925756674596i        3.141592575695525
42.81332398719393                                 -1.3279302612438693E-5-3.1415925756674596i        -2.5938743102103336E-6                            2.5938743102103336E-6
42.81332398719393                                 -4.397586075986823E-4-2.991319777762532E-8i       2.5938743102103336E-6                             2.5938743102103336E-6
42.81332398719393                                 -1.3279302612438693E-5+3.1415925756674596i        5.000256865297145E-6-3.1415926952336717i          3.141592695237651
42.81332398719393                                 -4.397586075986823E-4+2.991319777762532E-8i       5.000256865297145E-6+3.1415926952336717i          3.141592695237651
42.81332398719393                                 -2.5938743102103336E-6                            1.1755645835426652E-5-4.442882943404478i          4.44288294342003
42.81332398719393                                 -0.9999999999999993                               1.1755645835426652E-5+4.442882943404478i          4.44288294342003
88.58667904100822                                 -3.511257815435388E-5-3.1415926073912637i         -3.511257815435388E-5-3.1415926073912637i         3.141592607587485
88.58667904100822                                 -1.3822085194064625E-4-5.2708882871438674E-8i     -3.511257815435388E-5+3.1415926073912637i         3.141592607587485
88.58667904100822                                 -3.511257815435388E-5+3.1415926073912637i         -2.39469520675438E-5-6.283186184699167i           6.283186184744801
88.58667904100822                                 -1.3822085194064625E-4+5.2708882871438674E-8i     -2.39469520675438E-5+6.283186184699167i           6.283186184744801
88.58667904100822                                 -2.39469520675438E-5-6.283186184699167i           -5.081429706681717E-7-3.1415926028823202i         3.1415926028823615
88.58667904100822                                 -0.0032654172472212145+1.2294828793136002E-4i     -5.081429706681717E-7+3.1415926028823202i         3.1415926028823615
88.58667904100822                                 -2.39469520675438E-5+6.283186184699167i           8.04638317992934E-15-3.6556461234347307E-6i       3.6556461234347307E-6
88.58667904100822                                 -0.0032654172472212145-1.2294828793136002E-4i     8.04638317992934E-15+3.6556461234347307E-6i       3.6556461234347307E-6
88.58667904100822                                 -5.081429706681717E-7-3.1415926028823202i         1.8461086214878066E-5-4.442883158309204i          4.442883158347559
88.58667904100822                                 -4.505300807243289E-5+2.065674594651355E-8i       1.8461086214878066E-5+4.442883158309204i          4.442883158347559
183.29807108324357                                -1.3308707375599933E-5-4.442881874644557i         -1.3308707375599933E-5-4.442881874644557i         4.44288187466449
183.29807108324357                                -1.0501057304313946E-4-1.629750254686072E-7i      -1.3308707375599933E-5+4.442881874644557i         4.44288187466449
183.29807108324357                                -1.3308707375599933E-5+4.442881874644557i         -2.2241913084746733E-15-3.441451510463963E-6i     3.441451510463963E-6
183.29807108324357                                -1.0501057304313946E-4+1.629750254686072E-7i      -2.2241913084746733E-15+3.441451510463963E-6i     3.441451510463963E-6
183.29807108324357                                -2.2241913084746733E-15-3.441451510463963E-6i     2.834612647689266E-6-3.141592990919857i           3.141592990921136
183.29807108324357                                -1.0000000000001552                               2.834612647689266E-6+3.141592990919857i           3.141592990921136
183.29807108324357                                -2.2241913084746733E-15+3.441451510463963E-6i     2.5931311111302542E-5-3.1415928648060927i         3.1415928649131137
183.29807108324357                                -1.0000000000001552                               2.5931311111302542E-5+3.1415928648060927i         3.1415928649131137
183.29807108324357                                2.834612647689266E-6-3.141592990919857i           6.422424458134331E-5-6.28309748132234i            6.283097481650582
183.29807108324357                                -1.637091849565173E-4+4.115432105366597E-8i       6.422424458134331E-5+6.28309748132234i            6.283097481650582
379.26901907322497                                -3.335955723937699E-5-6.283125217716037i          -3.335955723937699E-5-6.283125217716037i          6.283125217804597
379.26901907322497                                1.5587982031613693E-5+0.0016469779679478519i      -3.335955723937699E-5+6.283125217716037i          6.283125217804597
379.26901907322497                                -3.335955723937699E-5+6.283125217716037i          -4.4619083018002606E-6-3.1415794711963816i        3.14157947119955
379.26901907322497                                1.5587982031613693E-5-0.0016469779679478519i      -4.4619083018002606E-6+3.1415794711963816i        3.14157947119955
379.26901907322497                                -4.4619083018002606E-6-3.1415794711963816i        -4.481846826358696E-6-3.1416058762041166i         3.1416058762073136
379.26901907322497                                -9.635361901549811E-4+8.785541018322833E-8i       -4.481846826358696E-6+3.1416058762041166i         3.1416058762073136
379.26901907322497                                -4.4619083018002606E-6+3.1415794711963816i        -4.317595082507057E-15-3.3374901659884722E-6i     3.3374901659884722E-6
379.26901907322497                                -9.635361901549811E-4-8.785541018322833E-8i       -4.317595082507057E-15+3.3374901659884722E-6i     3.3374901659884722E-6
379.26901907322497                                -4.481846826358696E-6-3.1416058762041166i         3.9409964662267765E-5-4.442883015405561i          4.442883015580351
379.26901907322497                                -9.605959066354863E-4+8.800157248586745E-8i       3.9409964662267765E-5+4.442883015405561i          4.442883015580351
784.7599703514607                                 -2.1676364963393257E-6-3.141578297431941i         -2.1676364963393257E-6-3.141578297431941i         3.1415782974326887
784.7599703514607                                 -2.1822267465633976E-4-1.487295630256843E-8i      -2.1676364963393257E-6+3.141578297431941i         3.1415782974326887
784.7599703514607                                 -2.1676364963393257E-6+3.141578297431941i         -2.2400113184122924E-6-3.14160710614388i          3.1416071061446784
784.7599703514607                                 -2.1822267465633976E-4+1.487295630256843E-8i      -2.2400113184122924E-6+3.14160710614388i          3.1416071061446784
784.7599703514607                                 -2.2400113184122924E-6-3.14160710614388i          1.6275293156087108E-14-1.7171181366196562E-6i     1.7171181366196562E-6
784.7599703514607                                 -2.1971938412461504E-4-1.6058378499188007E-8i     1.6275293156087108E-14+1.7171181366196562E-6i     1.7171181366196562E-6
784.7599703514607                                 -2.2400113184122924E-6+3.14160710614388i          2.0485686854190267E-6-4.442882958123349i          4.442882958123821
784.7599703514607                                 -2.1971938412461504E-4+1.6058378499188007E-8i     2.0485686854190267E-6+4.442882958123349i          4.442882958123821
784.7599703514607                                 1.6275293156087108E-14-1.7171181366196562E-6i     4.544744820970827E-5-6.283174987797936i           6.283174987962301
784.7599703514607                                 -1.0000000000001552+1.5611151129407895E-15i       4.544744820970827E-5+6.283174987797936i           6.283174987962301
1623.776739188721                                 -1.5801559568233793E-5-3.1415926671133243i        -1.5801559568233793E-5-3.1415926671133243i        3.1415926671530636
1623.776739188721                                 -5.795990418412076E-5+2.0375190056434572E-8i      -1.5801559568233793E-5+3.1415926671133243i        3.1415926671530636
1623.776739188721                                 -1.5801559568233793E-5+3.1415926671133243i        5.17416980348525E-17-3.434243509695046E-6i        3.434243509695046E-6
1623.776739188721                                 -5.795990418412076E-5-2.0375190056434572E-8i      5.17416980348525E-17+3.434243509695046E-6i        3.434243509695046E-6
1623.776739188721                                 5.17416980348525E-17-3.434243509695046E-6i        1.187253261919166E-7-4.442883232091971i           4.4428832320919724
1623.776739188721                                 -1.0000000000001552-1.2868616099839634E-16i       1.187253261919166E-7+4.442883232091971i           4.4428832320919724
1623.776739188721                                 5.17416980348525E-17+3.434243509695046E-6i        9.275140208538364E-6-6.283185623791323i           6.283185623798169
1623.776739188721                                 -1.0000000000001552+1.2868616099839634E-16i       9.275140208538364E-6+6.283185623791323i           6.283185623798169
1623.776739188721                                 1.187253261919166E-7-4.442883232091971i           2.1814702374318464E-5-3.1415926488265993i         3.1415926489023382
1623.776739188721                                 -8.388706658682536E-5+3.0142436161487685E-8i      2.1814702374318464E-5+3.1415926488265993i         3.1415926489023382
3359.818286283781                                 -1.3750993315154932E-5-4.442882964904465i         -1.3750993315154932E-5-4.442882964904465i         4.442882964925745
3359.818286283781                                 -7.870096735939216E-4-1.36083956374556E-7i        -1.3750993315154932E-5+4.442882964904465i         4.442882964925745
3359.818286283781                                 -1.3750993315154932E-5+4.442882964904465i         1.123717122180286E-15-3.339215292339894E-6i       3.339215292339894E-6
3359.818286283781                                 -7.870096735939216E-4+1.36083956374556E-7i        1.123717122180286E-15+3.339215292339894E-6i       3.339215292339894E-6
3359.818286283781                                 1.123717122180286E-15-3.339215292339894E-6i       1.7850420126400795E-5-6.28318578759385i           6.283185787619207
3359.818286283781                                 -1.000000000000155-2.194346699306874E-16i         1.7850420126400795E-5+6.28318578759385i           6.283185787619207
3359.818286283781                                 1.123717122180286E-15+3.339215292339894E-6i       3.432316222332997E-5-3.1416298035422314i          3.1416298037297263
3359.818286283781                                 -1.000000000000155+2.194346699306874E-16i         3.432316222332997E-5+3.1416298035422314i          3.1416298037297263
3359.818286283781                                 1.7850420126400795E-5-6.28318578759385i           3.4504292159676694E-5-3.1415557194002477i         3.1415557195897312
3359.818286283781                                 0.0013078556297217757-1.0332359859101585E-5i      3.4504292159676694E-5+3.1415557194002477i         3.1415557195897312
14384.498882876629                                -1.477333140756841E-5-6.283164954576677i          -1.477333140756841E-5-6.283164954576677i          6.283164954594045
14384.498882876629                                -0.0012293570207313022+7.167749449223015E-4i      -1.477333140756841E-5+6.283164954576677i          6.283164954594045
14384.498882876629                                -1.477333140756841E-5+6.283164954576677i          -3.2494640181771338E-6-3.141561148094788i         3.1415611480964682
14384.498882876629                                -0.0012293570207313022-7.167749449223015E-4i      -3.2494640181771338E-6+3.141561148094788i         3.1415611480964682
14384.498882876629                                -3.2494640181771338E-6-3.141561148094788i         -3.233245609828488E-6-3.1416241109217853i         3.141624110923449
14384.498882876629                                -8.235536829905054E-4-8.026172933071351E-8i       -3.233245609828488E-6+3.1416241109217853i         3.141624110923449
14384.498882876629                                -3.2494640181771338E-6+3.141561148094788i         -9.095641343407809E-15-3.377549092742482E-6i      3.377549092742482E-6
14384.498882876629                                -8.235536829905054E-4+8.026172933071351E-8i       -9.095641343407809E-15+3.377549092742482E-6i      3.377549092742482E-6
14384.498882876629                                -3.233245609828488E-6-3.1416241109217853i         1.0627357145705164E-5-4.442882949400413i          4.442882949413124
14384.498882876629                                -8.023435266197739E-4-8.51749007884647E-8i        1.0627357145705164E-5+4.442882949400413i          4.442882949413124
29763.51441631313                                 -2.8976674207077704E-5-4.4428830615804396i        -2.8976674207077704E-5-4.4428830615804396i        4.442883061674933
29763.51441631313                                 -7.171490904489719E-4-5.1959135286697805E-8i      -2.8976674207077704E-5+4.4428830615804396i        4.442883061674933
29763.51441631313                                 -2.8976674207077704E-5+4.4428830615804396i        -2.3016442415597665E-5-6.283184876316936i         6.283184876359092
29763.51441631313                                 -7.171490904489719E-4+5.1959135286697805E-8i      -2.3016442415597665E-5+6.283184876316936i         6.283184876359092
29763.51441631313                                 -2.3016442415597665E-5-6.283184876316936i         -5.990695855569879E-7-3.141538976953877i          3.1415389769539344
29763.51441631313                                 -0.0012301527180406068-2.7974885466041347E-5i     -5.990695855569879E-7+3.141538976953877i          3.1415389769539344
29763.51441631313                                 -2.3016442415597665E-5+6.283184876316936i         -5.289319654306369E-7-3.1416462308904536i         3.141646230890498
29763.51441631313                                 -0.0012301527180406068+2.7974885466041347E-5i     -5.289319654306369E-7+3.1416462308904536i         3.141646230890498
29763.51441631313                                 -5.990695855569879E-7-3.141538976953877i          5.1868313095304854E-15-3.5494153497901224E-6i     3.5494153497901224E-6
29763.51441631313                                 -2.4812423141734667E-4-3.4710735749464854E-8i     5.1868313095304854E-15+3.5494153497901224E-6i     3.5494153497901224E-6
61584.82110660255                                 -2.2326392398968766E-5-4.442882848433864i         -2.2326392398968766E-5-4.442882848433864i         4.442882848489961
61584.82110660255                                 -0.0017069437307886738-7.617200953695775E-12i     -2.2326392398968766E-5+4.442882848433864i         4.442882848489961
61584.82110660255                                 -2.2326392398968766E-5+4.442882848433864i         2.3090170922770966E-15-3.4859133819895023E-6i     3.4859133819895023E-6
61584.82110660255                                 -0.0017069437307886738+7.617200953695775E-12i     2.3090170922770966E-15+3.4859133819895023E-6i     3.4859133819895023E-6
61584.82110660255                                 2.3090170922770966E-15-3.4859133819895023E-6i     7.058573377265776E-6-3.1414359190509273i          3.1414359190588574
61584.82110660255                                 -1.0000000000001552+5.656821405487942E-16i        7.058573377265776E-6+3.1414359190509273i          3.1414359190588574
61584.82110660255                                 2.3090170922770966E-15+3.4859133819895023E-6i     7.088627942703383E-6-3.1417493065628945i          3.1417493065708912
61584.82110660255                                 -1.0000000000001552-5.656821405487942E-16i        7.088627942703383E-6+3.1417493065628945i          3.1417493065708912
61584.82110660255                                 7.058573377265776E-6-3.1414359190509273i          2.3212405335534096E-5-6.283165828125855i          6.283165828168733
61584.82110660255                                 -3.694550777571572E-4+2.622986139450651E-8i       2.3212405335534096E-5+6.283165828125855i          6.283165828168733
127427.49857031321                                -4.2395511541570404E-5-4.442882666506116i         -4.2395511541570404E-5-4.442882666506116i         4.4428826667083925
127427.49857031321                                -5.873859629411488E-5+1.4256087931256208E-7i      -4.2395511541570404E-5+4.442882666506116i         4.4428826667083925
127427.49857031321                                -4.2395511541570404E-5+4.442882666506116i         -2.5423167717493502E-5-6.283150817646762i         6.283150817698196
127427.49857031321                                -5.873859629411488E-5-1.4256087931256208E-7i      -2.5423167717493502E-5+6.283150817646762i         6.283150817698196
127427.49857031321                                -2.5423167717493502E-5-6.283150817646762i         -1.2259723896366237E-15-3.475341733850012E-6i     3.475341733850012E-6
127427.49857031321                                -1.8234762840228105E-4-4.268415914585962E-4i      -1.2259723896366237E-15+3.475341733850012E-6i     3.475341733850012E-6
127427.49857031321                                -2.5423167717493502E-5+6.283150817646762i         3.3247809077120847E-6-3.1412535585173167i         3.141253558519076
127427.49857031321                                -1.8234762840228105E-4+4.268415914585962E-4i      3.3247809077120847E-6+3.1412535585173167i         3.141253558519076
127427.49857031321                                -1.2259723896366237E-15-3.475341733850012E-6i     3.288615963523867E-6-3.1419315749017636i          3.141931574903485
127427.49857031321                                -1.0000000000001552-2.977098400516985E-16i        3.288615963523867E-6+3.1419315749017636i          3.141931574903485
263665.08987303555                                -2.083457303569697E-5-4.442881031150678i          -2.083457303569697E-5-4.442881031150678i          4.442881031199529
263665.08987303555                                -1.9707424510421046E-4-1.6848728208971334E-7i     -2.083457303569697E-5+4.442881031150678i          4.442881031199529
263665.08987303555                                -2.083457303569697E-5+4.442881031150678i          -6.550921994735252E-6-6.283166792377813i          6.283166792381228
263665.08987303555                                -1.9707424510421046E-4+1.6848728208971334E-7i     -6.550921994735252E-6+6.283166792377813i          6.283166792381228
263665.08987303555                                -6.550921994735252E-6-6.283166792377813i          -5.186626326626263E-6-3.1408689002115953i         3.1408689002158776
263665.08987303555                                -9.016498015928838E-4-1.4524863080043365E-4i      -5.186626326626263E-6+3.1408689002115953i         3.1408689002158776
263665.08987303555                                -6.550921994735252E-6+6.283166792377813i          -5.197574701978858E-6-3.1423156591982147i         3.142315659202513
263665.08987303555                                -9.016498015928838E-4+1.4524863080043365E-4i      -5.197574701978858E-6+3.1423156591982147i         3.142315659202513
263665.08987303555                                -5.186626326626263E-6-3.1408689002115953i         2.2021092663747553E-15-3.42350815213615E-6i       3.42350815213615E-6
263665.08987303555                                -8.822731273189873E-4+1.4417711926160013E-8i      2.2021092663747553E-15+3.42350815213615E-6i       3.42350815213615E-6
545559.4781168514                                 -2.7450818045876535E-5-6.283174487266135i         -2.7450818045876535E-5-6.283174487266135i         6.2831744873261
545559.4781168514                                 0.0022675960396879276+1.5353414102670083E-4i      -2.7450818045876535E-5+6.283174487266135i         6.2831744873261
545559.4781168514                                 -2.7450818045876535E-5+6.283174487266135i         8.194355894052777E-15-3.4633616134679524E-6i      3.4633616134679524E-6
545559.4781168514                                 0.0022675960396879276-1.5353414102670083E-4i      8.194355894052777E-15+3.4633616134679524E-6i      3.4633616134679524E-6
545559.4781168514                                 8.194355894052777E-15-3.4633616134679524E-6i      -3.79058291084023E-8-3.1430747820381457i          3.143074782038146
545559.4781168514                                 -1.0000000000001554-5.122811579946156E-16i        -3.79058291084023E-8+3.1430747820381457i          3.143074782038146
545559.4781168514                                 8.194355894052777E-15+3.4633616134679524E-6i      1.5467323238364922E-6-4.442848048185573i          4.442848048185843
545559.4781168514                                 -1.0000000000001554+5.122811579946156E-16i        1.5467323238364922E-6+4.442848048185573i          4.442848048185843
545559.4781168514                                 -3.79058291084023E-8-3.1430747820381457i          1.7654711449650156E-5-3.1401132483640293i         3.1401132484136594
545559.4781168514                                 -0.0013843505099588947-2.0582704369030364E-7i     1.7654711449650156E-5+3.1401132483640293i         3.1401132484136594
1128837.8916846884                                -1.4607649487363718E-5-6.283152085541322i         -1.4607649487363718E-5-6.283152085541322i         6.283152085558302
1128837.8916846884                                -0.0023511251905253185-2.740985599836335E-4i      -1.4607649487363718E-5+6.283152085541322i         6.283152085558302
1128837.8916846884                                -1.4607649487363718E-5+6.283152085541322i         2.2229692033049206E-15-3.4340909243560926E-6i     3.4340909243560926E-6
1128837.8916846884                                -0.0023511251905253185+2.740985599836335E-4i      2.2229692033049206E-15+3.4340909243560926E-6i     3.4340909243560926E-6
1128837.8916846884                                2.2229692033049206E-15-3.4340909243560926E-6i     1.3510150467797912E-5-3.1384957155583892i         3.1384957155874673
1128837.8916846884                                -1.0000000000001554-3.8143533552356653E-16i       1.3510150467797912E-5+3.1384957155583892i         3.1384957155874673
1128837.8916846884                                2.2229692033049206E-15+3.4340909243560926E-6i     1.3675962304382693E-5-3.1446794854012596i         3.1446794854309976
1128837.8916846884                                -1.0000000000001554+3.8143533552356653E-16i       1.3675962304382693E-5+3.1446794854012596i         3.1446794854309976
1128837.8916846884                                1.3510150467797912E-5-3.1384957155583892i         5.4886711807061945E-5-4.442847337973342i          4.442847338312376
1128837.8916846884                                -0.0034321555553909634-1.6491696847238904E-8i     5.4886711807061945E-5+4.442847337973342i          4.442847338312376
2335721.4690901213                                6.031888377911497E-15-3.4446940381092457E-6i      6.031888377911497E-15-3.4446940381092457E-6i      3.4446940381092457E-6
2335721.4690901213                                -1.0000000000001554                               6.031888377911497E-15+3.4446940381092457E-6i      3.4446940381092457E-6
2335721.4690901213                                6.031888377911497E-15+3.4446940381092457E-6i      1.4213891148586343E-5-3.135259977399551i          3.1352599774317707
2335721.4690901213                                -1.0000000000001554                               1.4213891148586343E-5+3.135259977399551i          3.1352599774317707
2335721.4690901213                                1.4213891148586343E-5-3.135259977399551i          1.4934495207398914E-5-3.147882878480859i          3.1478828785162856
2335721.4690901213                                -0.007016328976004474-3.247535029817577E-8i       1.4934495207398914E-5+3.147882878480859i          3.1478828785162856
2335721.4690901213                                1.4213891148586343E-5+3.135259977399551i          3.392596602024405E-5-4.442727232109327i           4.442727232238862
2335721.4690901213                                -0.007016328976004474+3.247535029817577E-8i       3.392596602024405E-5+4.442727232109327i           4.442727232238862
2335721.4690901213                                1.4934495207398914E-5-3.147882878480859i          3.5210078670456044E-5-6.283100968171347i          6.283100968270004
2335721.4690901213                                -0.007039781767836056+2.482431609047738E-8i       3.5210078670456044E-5+6.283100968171347i          6.283100968270004
4832930.238571752                                 -8.16888173463609E-6-3.128434211884113i           -8.16888173463609E-6-3.128434211884113i           3.128434211894778
4832930.238571752                                 -0.014820463798455226-3.715511774174841E-8i       -8.16888173463609E-6+3.128434211884113i           3.128434211894778
4832930.238571752                                 -8.16888173463609E-6+3.128434211884113i           -6.9345077193069774E-6-6.282747799105284i         6.282747799109111
4832930.238571752                                 -0.014820463798455226+3.715511774174841E-8i       -6.9345077193069774E-6+6.282747799105284i         6.282747799109111